LAMMPS data file. msi2lmp v3.9.9 / 05 Nov 2018 / CGCMM for PBI_10

    476 atoms
    534 bonds
    873 angles
   1358 dihedrals
    281 impropers

  13 atom types
  17 bond types
  27 angle types
  44 dihedral types
  13 improper types

   -51.173650079    19.717070279 xlo xhi
    -1.030192743   137.627287219 ylo yhi
   -57.371116367     6.407083318 zlo zhi

Masses

   1  12.011150 # c=
   2  14.006700 # n
   3  14.006700 # n=
   4  12.011150 # cp
   5  12.011150 # c5
   6   1.007970 # hn
   7   1.007970 # h
   8  15.999400 # o
   9  14.006700 # n2
  10  12.011150 # c'
  11  15.999400 # o'
  12  15.999400 # oh
  13   1.007970 # ho

Pair Coeffs # lj/cut/coul/long

   1   0.1479999981   3.6170487995 # c=
   2   0.1669999743   3.5012320066 # n
   3   0.1669999743   3.5012320066 # n=
   4   0.1479999981   3.6170487995 # cp
   5   0.1479999981   3.6170487995 # c5
   6   0.0380000011   2.4499714540 # hn
   7   0.0380000011   2.4499714540 # h
   8   0.2280000124   2.8597848722 # o
   9   0.1669999743   3.5012320066 # n2
  10   0.1479999981   3.6170487995 # c'
  11   0.2280000124   2.8597848722 # oh
  12   0.2280000124   2.8597848722 # o'
  13   0.0380000011   2.4499714540 # ho

Bond Coeffs # harmonic

   1   560.0000     1.2600 # c=-n
   2   560.0000     1.2600 # c=-n=
   3   480.0000     1.3400 # c=-cp
   4   560.0000     1.2600 # n-c5
   5   483.4512     1.0260 # n-hn
   6   560.0000     1.2600 # n=-c5
   7   480.0000     1.3400 # cp-cp
   8   280.0000     1.3900 # c5-c5
   9   280.0000     1.3400 # cp-c5
  10   363.4164     1.0800 # cp-h
  11   400.0000     1.3700 # cp-o
  12   351.2527     1.4720 # cp-c'
  13   388.0000     1.3200 # cp-n2
  14   457.4592     1.0260 # hn-n2
  15   400.0000     1.3700 # c'-oh
  16   615.3220     1.2300 # c'-o'
  17   540.6336     0.9600 # oh-ho

Angle Coeffs # harmonic

   1     0.0000     0.0000 # n-c=-n=
   2     0.0000     0.0000 # n-c=-cp
   3     0.0000     0.0000 # n=-c=-cp
   4     0.0000     0.0000 # c=-n-c5
   5     0.0000     0.0000 # c5-n-hn
   6     0.0000     0.0000 # c=-n-hn
   7     0.0000     0.0000 # c=-n=-c5
   8    90.0000   120.0000 # cp-cp-cp
   9    90.0000   120.0000 # c=-cp-cp
  10    90.0000   120.0000 # cp-c5-c5
  11     0.0000     0.0000 # n-c5-c5
  12     0.0000     0.0000 # n-c5-cp
  13    90.0000   120.0000 # n=-c5-c5
  14    90.0000   120.0000 # n=-c5-cp
  15    37.0000   120.0000 # cp-cp-h
  16    90.0000   120.0000 # cp-cp-c5
  17    37.0000   120.0000 # c5-cp-h
  18    60.0000   120.0000 # cp-cp-o
  19     0.0000     0.0000 # cp-o-cp
  20    34.6799   120.0000 # cp-cp-c'
  21   102.0000   120.0000 # cp-cp-n2
  22    37.5000   115.0000 # cp-n2-hn
  23    33.0000   125.0000 # hn-n2-hn
  24    54.4949   120.0000 # cp-c'-oh
  25    54.4949   120.0000 # cp-c'-o'
  26   145.0000   123.0000 # oh-c'-o'
  27    50.0000   112.0000 # c'-oh-ho

Dihedral Coeffs # harmonic

  1     0.0000  -1   2 # n=-c=-n-c5
  2     0.0000  -1   2 # n=-c=-n-hn
  3     0.0000  -1   2 # cp-c=-n-c5
  4     0.0000  -1   2 # cp-c=-n-hn
  5     2.0000  -1   2 # n-c=-n=-c5
  6     2.0000  -1   2 # cp-c=-n=-c5
  7     0.0000  -1   2 # n-c=-cp-cp
  8     0.0000  -1   2 # n=-c=-cp-cp
  9     2.5000  -1   2 # c=-n-c5-c5
 10     2.5000  -1   2 # c=-n-c5-cp
 11     2.5000  -1   2 # hn-n-c5-c5
 12     2.5000  -1   2 # hn-n-c5-cp
 13     2.0000  -1   2 # c=-n=-c5-c5
 14     2.0000  -1   2 # c=-n=-c5-cp
 15     3.0000  -1   2 # cp-cp-cp-cp
 16     3.0000  -1   2 # cp-cp-cp-h
 17     3.0000  -1   2 # c=-cp-cp-cp
 18     3.0000  -1   2 # c=-cp-cp-h
 19     3.0000  -1   2 # cp-c5-c5-cp
 20     3.0000  -1   2 # n=-c5-c5-cp
 21     3.0000  -1   2 # n-c5-c5-cp
 22     3.0000  -1   2 # n-c5-c5-n=
 23     3.0000  -1   2 # cp-cp-c5-c5
 24     3.0000  -1   2 # h-cp-c5-c5
 25     3.0000  -1   2 # cp-cp-c5-n
 26     3.0000  -1   2 # h-cp-c5-n
 27     3.0000  -1   2 # cp-cp-c5-n=
 28     3.0000  -1   2 # h-cp-c5-n=
 29     3.0000  -1   2 # h-cp-cp-h
 30     3.0000  -1   2 # cp-cp-cp-c5
 31     3.0000  -1   2 # c5-cp-cp-h
 32     3.0000  -1   2 # cp-cp-cp-o
 33     3.0000  -1   2 # h-cp-cp-o
 34     0.7500  -1   2 # cp-cp-o-cp
 35     3.0000  -1   2 # cp-cp-cp-c'
 36     3.0000  -1   2 # h-cp-cp-c'
 37     2.5000  -1   2 # cp-cp-c'-oh
 38     2.5000  -1   2 # cp-cp-c'-o'
 39     3.0000  -1   2 # cp-cp-cp-n2
 40     3.0000  -1   2 # h-cp-cp-n2
 41     3.0000  -1   2 # n2-cp-cp-n2
 42     2.5000  -1   2 # cp-cp-n2-hn
 43     2.2500  -1   2 # cp-c'-oh-ho
 44     2.2500  -1   2 # o'-c'-oh-ho

Improper Coeffs # cvff

    1     0.0000  -1   2 # n-c=-n=-cp
    2     0.0000  -1   2 # c=-n-c5-hn
    3     0.0000  -1   2 # c=-cp-cp-cp
    4     0.0000  -1   2 # n-c5-cp-c5
    5     0.3700  -1   2 # n=-c5-cp-c5
    6     0.3700  -1   2 # cp-cp-cp-h
    7     0.3700  -1   2 # cp-cp-c5-h
    8     0.3700  -1   2 # cp-cp-cp-cp
    9     0.0000  -1   2 # cp-cp-cp-o
   10    10.0000  -1   2 # cp-cp-cp-c'
   11     0.0000  -1   2 # cp-cp-cp-n2
   12     0.0000  -1   2 # cp-n2-hn-hn
   13    10.0000  -1   2 # cp-c'-oh-o'

Atoms # full

      1      1   1  0.499300    -2.631656118     2.412770601    -3.086431489   0   0   0 # c=
      2      1   2 -0.589300    -1.132918253     2.265970357    -3.258839608   0   0   0 # n
      3      1   3 -0.499300    -2.979818098     2.476151696    -1.603969348   0   0   0 # n=
      4      1   4  0.000000    -3.652029194     2.503444337    -4.237628469   0   0   0 # cp
      5      1   5  0.110000    -0.529433548     2.240773930    -1.886597578   0   0   0 # c5
      6      1   6  0.280000    -0.584272366     2.196763733    -4.221316985   0   0   0 # hn
      7      1   5  0.199300    -1.653065129     2.375757605    -0.881115437   0   0   0 # c5
      8      1   4 -0.100000    -5.159106264     2.584260447    -3.929434986   0   0   0 # cp
      9      1   4 -0.100000    -3.165459461     2.516325446    -5.697651155   0   0   0 # cp
     10      1   4 -0.100000     0.938405615     2.126171091    -1.459404161   0   0   0 # cp
     11      1   4 -0.100000    -1.375451848     2.428855397     0.624127048   0   0   0 # cp
     12      1   4 -0.100000    -6.180388011     2.651617368    -5.081681224   0   0   0 # cp
     13      1   7  0.100000    -5.519598822     2.583057651    -2.847962698   0   0   0 # h
     14      1   4 -0.100000    -4.184492157     2.611534363    -6.848323017   0   0   0 # cp
     15      1   7  0.100000    -2.050277433     2.457676562    -5.926937161   0   0   0 # h
     16      1   4  0.000000     1.247623897     2.182625743     0.056869524   0   0   0 # cp
     17      1   7  0.100000     1.772281428     2.014909971    -2.228987198   0   0   0 # h
     18      1   4 -0.100000     0.097096667     2.339686659     1.090941866   0   0   0 # cp
     19      1   7  0.100000    -2.225476733     2.536496667     1.375876475   0   0   0 # h
     20      1   4  0.028200    -5.693893954     2.668408080    -6.543541523   0   0   0 # cp
     21      1   7  0.100000    -7.296361523     2.681738599    -4.851863536   0   0   0 # h
     22      1   7  0.100000    -3.821637645     2.627258923    -7.928833006   0   0   0 # h
     23      1   4  0.000000     2.700969767     2.086833333     0.558199176   0   0   0 # cp
     24      1   7  0.100000     0.341426801     2.385115618     2.203615127   0   0   0 # h
     25      1   8 -0.056400    -6.684085896     2.691717639    -7.687482535   0   0   0 # o
     26      1   4 -0.100000     3.854327418     1.796325628    -0.433493634   0   0   0 # cp
     27      1   4 -0.100000     2.992993257     2.276660404     2.073701591   0   0   0 # cp
     28      1   4  0.028200    -7.874750576     3.621607847    -7.585303987   0   0   0 # cp
     29      1   5  0.110000     5.272555234     1.694597154     0.140266334   0   0   0 # c5
     30      1   7  0.100000     3.654202859     1.649315012    -1.546128740   0   0   0 # h
     31      1   4 -0.100000     4.440484138     2.193729764     2.613251593   0   0   0 # cp
     32      1   7  0.100000     2.132506349     2.482618880     2.792895109   0   0   0 # h
     33      1   4 -0.100000    -8.342367983     4.164992423    -6.220965804   0   0   0 # cp
     34      1   4 -0.100000    -8.642330027     4.008098630    -8.864455081   0   0   0 # cp
     35      1   5  0.199300     5.560942333     1.902801437     1.611236298   0   0   0 # c5
     36      1   2 -0.589300     6.567561958     1.364901498    -0.541992874   0   0   0 # n
     37      1   7  0.100000     4.664523243     2.336725739     3.721766842   0   0   0 # h
     38      1   4 -0.100000    -9.629351275     5.008346052    -6.128082145   0   0   0 # cp
     39      1   7  0.100000    -7.749000833     3.930802420    -5.277810651   0   0   0 # h
     40      1   4 -0.100000    -9.920081880     4.863989305    -8.773296121   0   0   0 # cp
     41      1   7  0.100000    -8.274670723     3.642533555    -9.879646909   0   0   0 # h
     42      1   3 -0.499300     7.039998252     1.726956569     1.874053044   0   0   0 # n=
     43      1   1  0.499300     7.647755020     1.380513170     0.521313252   0   0   0 # c=
     44      1   6  0.280000     6.706700853     1.137635786    -1.619629822   0   0   0 # hn
     45      1   4  0.000000   -10.437562698     5.328283955    -7.400281966   0   0   0 # cp
     46      1   7  0.100000    -9.992013689     5.383822171    -5.114563063   0   0   0 # h
     47      1   7  0.100000   -10.496081651     5.132213264    -9.719811240   0   0   0 # h
     48      1   4  0.000000     9.132217022     1.039575612     0.294674676   0   0   0 # cp
     49      1   1  0.499300   -11.782769681     6.074347574    -7.289964783   0   0   0 # c=
     50      1   4 -0.100000    10.134481935     1.202295228     1.450105956   0   0   0 # cp
     51      1   4 -0.100000     9.613469837     0.515909710    -1.070611981   0   0   0 # cp
     52      1   2 -0.589300   -12.679366743     6.443853183    -8.456029316   0   0   0 # n
     53      1   3 -0.499300   -12.454160052     6.459130283    -5.978264268   0   0   0 # n=
     54      1   4 -0.100000    11.609736005     0.812095316     1.253065424   0   0   0 # cp
     55      1   7  0.100000     9.783654631     1.614368017     2.453352930   0   0   0 # h
     56      1   4 -0.100000    11.079165893     0.075349975    -1.251543857   0   0   0 # cp
     57      1   7  0.100000     8.880253813     0.430092841    -1.939275258   0   0   0 # h
     58      1   5  0.110000   -13.927356043     7.047205672    -7.881647046   0   0   0 # c5
     59      1   6  0.280000   -12.466413382     6.269547187    -9.531441791   0   0   0 # hn
     60      1   5  0.199300   -13.790857290     7.048707575    -6.374498187   0   0   0 # c5
     61      1   4  0.028200    12.073025234     0.190277116    -0.078504445   0   0   0 # cp
     62      1   7  0.100000    12.353338538     0.975080461     2.098841291   0   0   0 # h
     63      1   7  0.100000    11.426833276    -0.346205992    -2.252018367   0   0   0 # h
     64      1   4 -0.100000   -15.194067815     7.552001482    -8.586082671   0   0   0 # cp
     65      1   4 -0.100000   -14.926124390     7.536452444    -5.469624888   0   0   0 # cp
     66      1   8 -0.056400    13.489322163    -0.320512414    -0.248093457   0   0   0 # o
     67      1   4  0.000000   -16.360854592     8.046883478    -7.694539590   0   0   0 # cp
     68      1   7  0.100000   -15.279844075     7.549648444    -9.722826536   0   0   0 # h
     69      1   4 -0.100000   -16.227012890     8.032906690    -6.144779817   0   0   0 # cp
     70      1   7  0.100000   -14.819535068     7.524426568    -4.334735124   0   0   0 # h
     71      1   4  0.028200    14.420961643    -0.222338823     0.942215254   0   0   0 # cp
     72      1   4  0.000000   -17.671993982     8.553348624    -8.327429161   0   0   0 # cp
     73      1   7  0.100000   -17.095463262     8.393836493    -5.500109025   0   0   0 # h
     74      1   4 -0.100000    13.867374542    -0.207851900     2.379485404   0   0   0 # cp
     75      1   4 -0.100000    15.941858331    -0.141438980     0.709884888   0   0   0 # cp
     76      1   4 -0.100000   -17.800678937     8.690868815    -9.865105357   0   0   0 # cp
     77      1   4 -0.100000   -18.862734101     8.933075340    -7.401818797   0   0   0 # cp
     78      1   4 -0.100000    14.820787013    -0.017041611     3.572372840   0   0   0 # cp
     79      1   7  0.100000    12.748280850    -0.322204534     2.560375267   0   0   0 # h
     80      1   4 -0.100000    16.900967914    -0.009856757     1.907237559   0   0   0 # cp
     81      1   7  0.100000    16.357737353    -0.179485392    -0.350677204   0   0   0 # h
     82      1   5  0.110000   -19.128411520     9.222267316   -10.421098268   0   0   0 # c5
     83      1   7  0.100000   -16.936486867     8.418517287   -10.557072248   0   0   0 # h
     84      1   4 -0.100000   -20.195497974     9.445405324    -7.999477097   0   0   0 # cp
     85      1   7  0.100000   -18.753121622     8.829478955    -6.271793054   0   0   0 # h
     86      1   4  0.179200    16.336765951     0.082256422     3.335967046   0   0   0 # cp
     87      1   7  0.100000    14.405037288     0.044337794     4.631994370   0   0   0 # h
     88      1   7  0.100000    18.026805112     0.040253980     1.734623311   0   0   0 # h
     89      1   5  0.199300   -20.292577192     9.579088406    -9.522233522   0   0   0 # c5
     90      1   2 -0.589300   -19.535341127     9.506634011   -11.836183927   0   0   0 # n
     91      1   7  0.100000   -21.074119357     9.721313678    -7.327590175   0   0   0 # h
     92      1   3 -0.499300   -21.452100474    10.081977443   -10.357035918   0   0   0 # n=
     93      1   1  0.499300   -20.955681657    10.035047237   -11.797500056   0   0   0 # c=
     94      1   6  0.280000   -18.910801904     9.363226365   -12.742438282   0   0   0 # hn
     95      1   4  0.000000   -21.773244496    10.475753106   -13.028652407   0   0   0 # cp
     96      1   4 -0.100000   -23.235878309    10.931657486   -12.863318553   0   0   0 # cp
     97      1   4 -0.100000   -21.127559355    10.463240296   -14.425584216   0   0   0 # cp
     98      1   4 -0.100000   -24.058860535    11.350049906   -14.097791760   0   0   0 # cp
     99      1   7  0.100000   -23.713126542    10.948686470   -11.828152375   0   0   0 # h
    100      1   4 -0.100000   -21.941525175    10.907767041   -15.655377548   0   0   0 # cp
    101      1   7  0.100000   -20.045470032    10.126642208   -14.549400427   0   0   0 # h
    102      1   4  0.028200   -23.411228367    11.341539495   -15.495901422   0   0   0 # cp
    103      1   7  0.100000   -25.149306633    11.659094766   -13.976618612   0   0   0 # h
    104      1   7  0.100000   -21.459395410    10.902420067   -16.688333659   0   0   0 # h
    105      1   8 -0.056400   -24.216088248    11.711071394   -16.723489220   0   0   0 # o
    106      1   4  0.028200   -25.131793436    12.914542028   -16.643969343   0   0   0 # cp
    107      1   4 -0.100000   -25.602983906    13.464516493   -15.283657853   0   0   0 # cp
    108      1   4 -0.100000   -25.616957094    13.582131799   -17.946225722   0   0   0 # cp
    109      1   4 -0.100000   -26.631502466    14.610859161   -15.230753453   0   0   0 # cp
    110      1   7  0.100000   -25.206769724    13.013971703   -14.316124867   0   0   0 # h
    111      1   4 -0.100000   -26.633059634    14.738685815   -17.892462671   0   0   0 # cp
    112      1   7  0.100000   -25.238051882    13.205691824   -18.953238514   0   0   0 # h
    113      1   4  0.000000   -27.173107233    15.224821227   -16.535834749   0   0   0 # cp
    114      1   7  0.100000   -27.003521383    14.996011380   -14.224396436   0   0   0 # h
    115      1   7  0.100000   -27.003831907    15.218504692   -18.857774268   0   0   0 # h
    116      1   1  0.499300   -28.284655256    16.292282609   -16.480824483   0   0   0 # c=
    117      1   2 -0.589300   -28.910985064    16.969775573   -17.684865206   0   0   0 # n
    118      1   3 -0.499300   -28.986624673    16.747336190   -15.207556362   0   0   0 # n=
    119      1   5  0.110000   -30.021535579    17.841010130   -17.175715453   0   0   0 # c5
    120      1   6  0.280000   -28.623277939    16.822244663   -18.746846879   0   0   0 # hn
    121      1   5  0.199300   -30.070394609    17.698174273   -15.669778406   0   0   0 # c5
    122      1   4 -0.100000   -31.022852001    18.713421512   -17.945098489   0   0   0 # cp
    123      1   4 -0.100000   -31.141828535    18.405127341   -14.834394035   0   0   0 # cp
    124      1   4  0.000000   -32.120700285    19.436183911   -17.124806835   0   0   0 # cp
    125      1   7  0.100000   -30.970409396    18.815065467   -19.079426911   0   0   0 # h
    126      1   4 -0.100000   -32.181262857    19.276548327   -15.578877015   0   0   0 # cp
    127      1   7  0.100000   -31.179019707    18.283852851   -13.701575616   0   0   0 # h
    128      1   4  0.000000   -33.171712086    20.317516350   -17.828348469   0   0   0 # cp
    129      1   7  0.100000   -32.998113756    19.809837214   -14.988715520   0   0   0 # h
    130      1   4 -0.100000   -33.075853124    20.593585699   -19.349586314   0   0   0 # cp
    131      1   4 -0.100000   -34.327689694    20.933342269   -16.988610425   0   0   0 # cp
    132      1   5  0.110000   -34.146077383    21.498146926   -19.974879129   0   0   0 # c5
    133      1   7  0.100000   -32.233974923    20.150911800   -19.978101681   0   0   0 # h
    134      1   4 -0.100000   -35.402239650    21.824315731   -17.657665471   0   0   0 # cp
    135      1   7  0.100000   -34.383958909    20.724914989   -15.869124363   0   0   0 # h
    136      1   5  0.199300   -35.278324344    22.087294022   -19.161513852   0   0   0 # c5
    137      1   2 -0.589300   -34.293789958    21.981163415   -21.387042605   0   0   0 # n
    138      1   7  0.100000   -36.255038195    22.275049038   -17.050034497   0   0   0 # h
    139      1   3 -0.499300   -36.160820735    22.939429972   -20.050259313   0   0   0 # n=
    140      1   1  0.499300   -35.524580317    22.864822255   -21.432854608   0   0   0 # c=
    141      1   6  0.280000   -33.623327492    21.741628416   -22.238630223   0   0   0 # hn
    142      1   4  0.000000   -36.047955634    23.594675956   -22.686268752   0   0   0 # cp
    143      1   4 -0.100000   -37.353856496    24.409819716   -22.617979003   0   0   0 # cp
    144      1   4 -0.100000   -35.264731412    23.510549348   -24.008778402   0   0   0 # cp
    145      1   4 -0.100000   -37.888053503    25.119891105   -23.877918436   0   0   0 # cp
    146      1   7  0.100000   -37.931149620    24.479283103   -21.637268944   0   0   0 # h
    147      1   4 -0.100000   -35.784465773    24.243242400   -25.260414441   0   0   0 # cp
    148      1   7  0.100000   -34.297784398    22.908789962   -24.060788241   0   0   0 # h
    149      1   4  0.028200   -37.102128690    25.040060325   -25.200452784   0   0   0 # cp
    150      1   7  0.100000   -38.868899839    25.698581060   -23.832199530   0   0   0 # h
    151      1   7  0.100000   -35.199553079    24.184170270   -26.237238504   0   0   0 # h
    152      1   8 -0.056400   -37.632232829    25.697336405   -26.456680520   0   0   0 # o
    153      1   4  0.028200   -38.210100118    27.092860772   -26.344236381   0   0   0 # cp
    154      1   4 -0.100000   -38.683214676    27.648512673   -24.987389973   0   0   0 # cp
    155      1   4 -0.100000   -38.346605416    27.957871804   -27.612963360   0   0   0 # cp
    156      1   4 -0.100000   -39.380901764    29.020972744   -24.918282185   0   0   0 # cp
    157      1   7  0.100000   -38.535256600    27.039591930   -24.036865266   0   0   0 # h
    158      1   4 -0.100000   -39.029804125    29.336815710   -27.540962944   0   0   0 # cp
    159      1   7  0.100000   -37.959195245    27.567443596   -28.611577136   0   0   0 # h
    160      1   4  0.000000   -39.585336997    29.850065299   -26.200578483   0   0   0 # cp
    161      1   7  0.100000   -39.759284759    29.417215849   -23.918581268   0   0   0 # h
    162      1   7  0.100000   -39.145078429    29.966559293   -28.484217237   0   0   0 # h
    163      1   1  0.499300   -40.383663543    31.168029872   -26.146143950   0   0   0 # c=
    164      1   2 -0.589300   -40.664734318    32.072981843   -27.329921501   0   0   0 # n
    165      1   3 -0.499300   -41.093406104    31.700539736   -24.907585172   0   0   0 # n=
    166      1   5  0.110000   -41.567503105    33.169542648   -26.845578826   0   0   0 # c5
    167      1   6  0.280000   -40.298470288    31.931397891   -28.368205356   0   0   0 # hn
    168      1   5  0.199300   -41.832588736    32.936775151   -25.374128955   0   0   0 # c5
    169      1   4 -0.100000   -42.211097816    34.330198742   -27.616389176   0   0   0 # cp
    170      1   4 -0.100000   -42.779782750    33.840890150   -24.579586906   0   0   0 # cp
    171      1   4  0.000000   -43.177797643    35.257577739   -26.838589049   0   0   0 # cp
    172      1   7  0.100000   -41.997473849    34.495542535   -28.723953649   0   0   0 # h
    173      1   4 -0.100000   -43.462830665    35.009369565   -25.329835108   0   0   0 # cp
    174      1   7  0.100000   -42.982387846    33.653089514   -23.473534617   0   0   0 # h
    175      1   4  0.000000   -43.874927788    36.435455351   -27.548386325   0   0   0 # cp
    176      1   7  0.100000   -44.181684530    35.695840003   -24.771211573   0   0   0 # h
    177      1   4 -0.100000   -43.528990826    36.783736354   -29.017393087   0   0   0 # cp
    178      1   4 -0.100000   -44.926129781    37.274949722   -26.768198237   0   0   0 # cp
    179      1   5  0.110000   -44.248025718    37.982468696   -29.650329518   0   0   0 # c5
    180      1   7  0.100000   -42.759427430    36.179485053   -29.602538125   0   0   0 # h
    181      1   4 -0.100000   -45.648102451    38.464922937   -27.445703111   0   0   0 # cp
    182      1   7  0.100000   -45.168759348    37.009322958   -25.686431365   0   0   0 # h
    183      1   5  0.199300   -45.280969080    38.791936795   -28.895928743   0   0   0 # c5
    184      1   2 -0.589300   -44.096086824    38.586796824   -31.014519549   0   0   0 # n
    185      1   7  0.100000   -46.422955473    39.081875202   -26.881198489   0   0   0 # h
    186      1   3 -0.499300   -45.801769419    39.908941403   -29.776248752   0   0   0 # n=
    187      1   1  0.499300   -45.044123349    39.766760774   -31.091243452   0   0   0 # c=
    188      1   6  0.280000   -43.411824114    38.239409349   -31.816324605   0   0   0 # hn
    189      1   4  0.000000   -45.208056642    40.697202868   -32.309714020   0   0   0 # cp
    190      1   4 -0.100000   -46.258061060    41.824448837   -32.287490459   0   0   0 # cp
    191      1   4 -0.100000   -44.319824588    40.501248938   -33.551871331   0   0   0 # cp
    192      1   4 -0.100000   -46.435917244    42.739395866   -33.515672406   0   0   0 # cp
    193      1   7  0.100000   -46.911056287    41.975474553   -31.365299658   0   0   0 # h
    194      1   4 -0.100000   -44.479030486    41.433279674   -34.768163774   0   0   0 # cp
    195      1   7  0.100000   -43.541668549    39.668154035   -33.570711588   0   0   0 # h
    196      1   4  0.028200   -45.543994244    42.546309900   -34.757315922   0   0   0 # cp
    197      1   7  0.100000   -47.233505524    43.553678263   -33.507549085   0   0   0 # h
    198      1   7  0.100000   -43.816507065    41.290162539   -35.684704701   0   0   0 # h
    199      1   8 -0.056400   -45.732017215    43.409363399   -35.986579032   0   0   0 # o
    200      1   4  0.028200   -45.942261291    44.896695416   -35.792719267   0   0   0 # cp
    201      1   4 -0.100000   -46.415661639    45.460683719   -34.438734659   0   0   0 # cp
    202      1   4 -0.100000   -45.701081818    45.854073920   -36.976129429   0   0   0 # cp
    203      1   4 -0.100000   -46.741072317    46.960965251   -34.301070641   0   0   0 # cp
    204      1   7  0.100000   -46.542393642    44.769044675   -33.543139251   0   0   0 # h
    205      1   4 -0.100000   -46.011448221    47.356549043   -36.833479922   0   0   0 # cp
    206      1   7  0.100000   -45.310798593    45.445686202   -37.966286775   0   0   0 # h
    207      1   4  0.000000   -46.572580995    47.903034001   -35.508275291   0   0   0 # cp
    208      1   7  0.100000   -47.121916398    47.372040554   -33.308369916   0   0   0 # h
    209      1   7  0.100000   -45.849437746    48.058760247   -37.716902047   0   0   0 # h
    210      1   1  0.499300   -47.006101960    49.378520726   -35.400251922   0   0   0 # c=
    211      1   2 -0.589300   -46.903600129    50.407007790   -36.509937708   0   0   0 # n
    212      1   3 -0.499300   -47.696193818    49.991967156   -34.188052894   0   0   0 # n=
    213      1   5  0.110000   -47.545023117    51.667220426   -36.007799880   0   0   0 # c5
    214      1   6  0.280000   -46.466515640    50.246317718   -37.517447336   0   0   0 # hn
    215      1   5  0.199300   -48.032430232    51.410196050   -34.597943297   0   0   0 # c5
    216      1   4 -0.100000   -47.772728966    53.009404186   -36.716874390   0   0   0 # cp
    217      1   4 -0.100000   -48.801795160    52.475444699   -33.811462131   0   0   0 # cp
    218      1   4  0.000000   -48.552260933    54.103899274   -35.945260539   0   0   0 # cp
    219      1   7  0.100000   -47.394342597    53.189595987   -37.777120309   0   0   0 # h
    220      1   4 -0.100000   -49.067782279    53.833864128   -34.503600294   0   0   0 # cp
    221      1   7  0.100000   -49.174795047    52.271200887   -32.753756303   0   0   0 # h
    222      1   4  0.000000   -48.833623008    55.472082525   -36.597709248   0   0   0 # cp
    223      1   7  0.100000   -49.645290100    54.646411381   -33.950341859   0   0   0 # h
    224      1   4 -0.100000   -48.237161005    55.820207837   -37.984297871   0   0   0 # cp
    225      1   4 -0.100000   -49.717859193    56.503797004   -35.840396344   0   0   0 # cp
    226      1   5  0.110000   -48.542422106    57.209583344   -38.559029109   0   0   0 # c5
    227      1   7  0.100000   -47.586508140    55.075260563   -38.551253757   0   0   0 # h
    228      1   4 -0.100000   -50.022560133    57.888730323   -36.461079439   0   0   0 # cp
    229      1   7  0.100000   -50.147651766    56.235521136   -34.819032241   0   0   0 # h
    230      1   5  0.199300   -49.413619715    58.209447281   -37.829701403   0   0   0 # c5
    231      1   2 -0.589300   -48.077726001    57.847828477   -39.834564215   0   0   0 # n
    232      1   7  0.100000   -50.673650079    58.648261537   -35.914380698   0   0   0 # h
    233      1   3 -0.499300   -49.519924631    59.485662235   -38.638212513   0   0   0 # n=
    234      1   1  0.499300   -48.673371045    59.241113916   -39.882077008   0   0   0 # c=
    235      1   6  0.280000   -47.415824471    57.388329542   -40.598018173   0   0   0 # hn
    236      1   4  0.000000   -48.445326994    60.266271797   -41.010518880   0   0   0 # cp
    237      1   4 -0.100000   -49.165374707    61.628344007   -40.975772542   0   0   0 # cp
    238      1   4 -0.100000   -47.495144345    59.930995892   -42.174278916   0   0   0 # cp
    239      1   4 -0.100000   -48.954882881    62.642970656   -42.117431478   0   0   0 # cp
    240      1   7  0.100000   -49.863695693    61.881139348   -40.110781933   0   0   0 # h
    241      1   4 -0.100000   -47.263381304    60.956359552   -43.300425796   0   0   0 # cp
    242      1   7  0.100000   -46.960489478    58.924509206   -42.200940016   0   0   0 # h
    243      1   4  0.028200   -48.000444510    62.309473892   -43.280029340   0   0   0 # cp
    244      1   7  0.100000   -49.511556554    63.637534333   -42.104551533   0   0   0 # h
    245      1   7  0.100000   -46.554675839    60.707785398   -44.158151162   0   0   0 # h
    246      1   8 -0.056400   -47.812572855    63.277121909   -44.428509796   0   0   0 # o
    247      1   4  0.028200   -47.654834417    64.748379956   -44.106662157   0   0   0 # cp
    248      1   4 -0.100000   -48.126633398    65.319440557   -42.755154015   0   0   0 # cp
    249      1   4 -0.100000   -47.034620218    65.689600746   -45.157482650   0   0   0 # cp
    250      1   4 -0.100000   -48.069576933    66.838099332   -42.498383608   0   0   0 # cp
    251      1   7  0.100000   -48.534751995    64.624310944   -41.951082885   0   0   0 # h
    252      1   4 -0.100000   -46.962730804    67.205877838   -44.894423805   0   0   0 # cp
    253      1   7  0.100000   -46.645932286    65.264783852   -46.141235923   0   0   0 # h
    254      1   4  0.000000   -47.519893285    67.785347609   -43.581888803   0   0   0 # cp
    255      1   7  0.100000   -48.447512122    67.263102929   -41.510361820   0   0   0 # h
    256      1   7  0.100000   -46.519996400    67.901182311   -45.681963346   0   0   0 # h
    257      1   1  0.499300   -47.569365921    69.311647648   -43.367787649   0   0   0 # c=
    258      1   2 -0.589300   -47.072384544    70.352289413   -44.352247141   0   0   0 # n
    259      1   3 -0.499300   -48.220932146    69.997986892   -42.173656453   0   0   0 # n=
    260      1   5  0.110000   -47.424609061    71.698462140   -43.790512474   0   0   0 # c5
    261      1   6  0.280000   -46.572088739    70.153808801   -45.322983190   0   0   0 # hn
    262      1   5  0.199300   -48.129542929    71.480050386   -42.469015213   0   0   0 # c5
    263      1   4 -0.100000   -47.212253111    73.099627395   -44.379607541   0   0   0 # cp
    264      1   4 -0.100000   -48.689022007    72.652538765   -41.658168039   0   0   0 # cp
    265      1   4  0.000000   -47.772223208    74.304358940   -43.581869999   0   0   0 # cp
    266      1   7  0.100000   -46.674337373    73.248025965   -45.373862847   0   0   0 # h