LAMMPS data file. msi2lmp v3.9.9 / 05 Nov 2018 / CGCMM for PBI_5

    241 atoms
    269 bonds
    438 angles
    678 dihedrals
    141 impropers

  13 atom types
  17 bond types
  27 angle types
  44 dihedral types
  13 improper types

   -50.838123865    20.500231212 xlo xhi
    -1.226718809    60.768340859 ylo yhi
   -41.076234133     5.384801675 zlo zhi

Masses

   1  12.011150 # c=
   2  14.006700 # n
   3  14.006700 # n=
   4  12.011150 # cp
   5  12.011150 # c5
   6   1.007970 # hn
   7   1.007970 # h
   8  15.999400 # o
   9  14.006700 # n2
  10  12.011150 # c'
  11  15.999400 # oh
  12  15.999400 # o'
  13   1.007970 # ho

Pair Coeffs # lj/cut/coul/long

   1   0.1479999981   3.6170487995 # c=
   2   0.1669999743   3.5012320066 # n
   3   0.1669999743   3.5012320066 # n=
   4   0.1479999981   3.6170487995 # cp
   5   0.1479999981   3.6170487995 # c5
   6   0.0380000011   2.4499714540 # hn
   7   0.0380000011   2.4499714540 # h
   8   0.2280000124   2.8597848722 # o
   9   0.1669999743   3.5012320066 # n2
  10   0.1479999981   3.6170487995 # c'
  11   0.2280000124   2.8597848722 # oh
  12   0.2280000124   2.8597848722 # o'
  13   0.0380000011   2.4499714540 # ho

Bond Coeffs # harmonic

   1   560.0000     1.2600 # c=-n
   2   560.0000     1.2600 # c=-n=
   3   480.0000     1.3400 # c=-cp
   4   560.0000     1.2600 # n-c5
   5   483.4512     1.0260 # n-hn
   6   560.0000     1.2600 # n=-c5
   7   480.0000     1.3400 # cp-cp
   8   280.0000     1.3900 # c5-c5
   9   280.0000     1.3400 # cp-c5
  10   363.4164     1.0800 # cp-h
  11   400.0000     1.3700 # cp-o
  12   351.2527     1.4720 # cp-c'
  13   388.0000     1.3200 # cp-n2
  14   457.4592     1.0260 # hn-n2
  15   400.0000     1.3700 # c'-oh
  16   615.3220     1.2300 # c'-o'
  17   540.6336     0.9600 # oh-ho

Angle Coeffs # harmonic

   1     0.0000     0.0000 # n-c=-n=
   2     0.0000     0.0000 # n-c=-cp
   3     0.0000     0.0000 # n=-c=-cp
   4     0.0000     0.0000 # c=-n-c5
   5     0.0000     0.0000 # c5-n-hn
   6     0.0000     0.0000 # c=-n-hn
   7     0.0000     0.0000 # c=-n=-c5
   8    90.0000   120.0000 # cp-cp-cp
   9    90.0000   120.0000 # c=-cp-cp
  10    90.0000   120.0000 # cp-c5-c5
  11     0.0000     0.0000 # n-c5-c5
  12     0.0000     0.0000 # n-c5-cp
  13    90.0000   120.0000 # n=-c5-c5
  14    90.0000   120.0000 # n=-c5-cp
  15    37.0000   120.0000 # cp-cp-h
  16    90.0000   120.0000 # cp-cp-c5
  17    37.0000   120.0000 # c5-cp-h
  18    60.0000   120.0000 # cp-cp-o
  19     0.0000     0.0000 # cp-o-cp
  20    34.6799   120.0000 # cp-cp-c'
  21   102.0000   120.0000 # cp-cp-n2
  22    37.5000   115.0000 # cp-n2-hn
  23    33.0000   125.0000 # hn-n2-hn
  24    54.4949   120.0000 # cp-c'-oh
  25    54.4949   120.0000 # cp-c'-o'
  26   145.0000   123.0000 # oh-c'-o'
  27    50.0000   112.0000 # c'-oh-ho

Dihedral Coeffs # harmonic

  1     0.0000  -1   2 # n=-c=-n-c5
  2     0.0000  -1   2 # n=-c=-n-hn
  3     0.0000  -1   2 # cp-c=-n-c5
  4     0.0000  -1   2 # cp-c=-n-hn
  5     2.0000  -1   2 # n-c=-n=-c5
  6     2.0000  -1   2 # cp-c=-n=-c5
  7     0.0000  -1   2 # n-c=-cp-cp
  8     0.0000  -1   2 # n=-c=-cp-cp
  9     2.5000  -1   2 # c=-n-c5-c5
 10     2.5000  -1   2 # c=-n-c5-cp
 11     2.5000  -1   2 # hn-n-c5-c5
 12     2.5000  -1   2 # hn-n-c5-cp
 13     2.0000  -1   2 # c=-n=-c5-c5
 14     2.0000  -1   2 # c=-n=-c5-cp
 15     3.0000  -1   2 # cp-cp-cp-cp
 16     3.0000  -1   2 # cp-cp-cp-h
 17     3.0000  -1   2 # c=-cp-cp-cp
 18     3.0000  -1   2 # c=-cp-cp-h
 19     3.0000  -1   2 # cp-c5-c5-cp
 20     3.0000  -1   2 # n=-c5-c5-cp
 21     3.0000  -1   2 # n-c5-c5-cp
 22     3.0000  -1   2 # n-c5-c5-n=
 23     3.0000  -1   2 # cp-cp-c5-c5
 24     3.0000  -1   2 # h-cp-c5-c5
 25     3.0000  -1   2 # cp-cp-c5-n
 26     3.0000  -1   2 # h-cp-c5-n
 27     3.0000  -1   2 # cp-cp-c5-n=
 28     3.0000  -1   2 # h-cp-c5-n=
 29     3.0000  -1   2 # h-cp-cp-h
 30     3.0000  -1   2 # cp-cp-cp-c5
 31     3.0000  -1   2 # c5-cp-cp-h
 32     3.0000  -1   2 # cp-cp-cp-o
 33     3.0000  -1   2 # h-cp-cp-o
 34     0.7500  -1   2 # cp-cp-o-cp
 35     3.0000  -1   2 # cp-cp-cp-c'
 36     3.0000  -1   2 # h-cp-cp-c'
 37     2.5000  -1   2 # cp-cp-c'-oh
 38     2.5000  -1   2 # cp-cp-c'-o'
 39     3.0000  -1   2 # cp-cp-cp-n2
 40     3.0000  -1   2 # h-cp-cp-n2
 41     3.0000  -1   2 # n2-cp-cp-n2
 42     2.5000  -1   2 # cp-cp-n2-hn
 43     2.2500  -1   2 # cp-c'-oh-ho
 44     2.2500  -1   2 # o'-c'-oh-ho

Improper Coeffs # cvff

    1     0.0000  -1   2 # n-c=-n=-cp
    2     0.0000  -1   2 # c=-n-c5-hn
    3     0.0000  -1   2 # c=-cp-cp-cp
    4     0.0000  -1   2 # n-c5-cp-c5
    5     0.3700  -1   2 # n=-c5-cp-c5
    6     0.3700  -1   2 # cp-cp-cp-h
    7     0.3700  -1   2 # cp-cp-c5-h
    8     0.3700  -1   2 # cp-cp-cp-cp
    9     0.0000  -1   2 # cp-cp-cp-o
   10    10.0000  -1   2 # cp-cp-cp-c'
   11     0.0000  -1   2 # cp-cp-cp-n2
   12     0.0000  -1   2 # cp-n2-hn-hn
   13    10.0000  -1   2 # cp-c'-oh-o'

Atoms # full

      1      1   1  0.499300    -2.604919352     2.462430082    -3.112607885   0   0   0 # c=
      2      1   2 -0.589300    -1.098776183     2.364463702    -3.265411196   0   0   0 # n
      3      1   3 -0.499300    -2.973816885     2.493348989    -1.633965814   0   0   0 # n=
      4      1   4  0.000000    -3.617918448     2.545786275    -4.273597728   0   0   0 # cp
      5      1   5  0.110000    -0.513197205     2.338443401    -1.883530528   0   0   0 # c5
      6      1   6  0.280000    -0.534921969     2.325344545    -4.220853656   0   0   0 # hn
      7      1   5  0.199300    -1.654376281     2.427128563    -0.893538129   0   0   0 # c5
      8      1   4 -0.100000    -5.130627248     2.537254564    -3.977155740   0   0   0 # cp
      9      1   4 -0.100000    -3.123383536     2.644842149    -5.728912869   0   0   0 # cp
     10      1   4 -0.100000     0.951799779     2.255396524    -1.433130085   0   0   0 # cp
     11      1   4 -0.100000    -1.400102123     2.474296103     0.616391911   0   0   0 # cp
     12      1   4 -0.100000    -6.146947309     2.605850558    -5.134581737   0   0   0 # cp
     13      1   7  0.100000    -5.498536206     2.469989435    -2.900127546   0   0   0 # h
     14      1   4 -0.100000    -4.139950219     2.745815454    -6.883445951   0   0   0 # cp
     15      1   7  0.100000    -2.005197691     2.651874335    -5.951448670   0   0   0 # h
     16      1   4  0.000000     1.238322609     2.292481347     0.089728129   0   0   0 # cp
     17      1   7  0.100000     1.799424679     2.172865345    -2.191023577   0   0   0 # h
     18      1   4 -0.100000     0.067540816     2.416914411     1.106096146   0   0   0 # cp
     19      1   7  0.100000    -2.263765704     2.555133647     1.356057174   0   0   0 # h
     20      1   4  0.028200    -5.653100969     2.713701752    -6.589776488   0   0   0 # cp
     21      1   7  0.100000    -7.264567551     2.568747818    -4.913474830   0   0   0 # h
     22      1   7  0.100000    -3.771525006     2.827863282    -7.959206517   0   0   0 # h
     23      1   4  0.000000     2.686164448     2.196943740     0.614162983   0   0   0 # cp
     24      1   7  0.100000     0.292228214     2.455324764     2.223206186   0   0   0 # h
     25      1   8 -0.056400    -6.638581909     2.740977415    -7.739283113   0   0   0 # o
     26      1   4 -0.100000     3.857194241     1.945899080    -0.367516737   0   0   0 # cp
     27      1   4 -0.100000     2.956198953     2.327116556     2.141204110   0   0   0 # cp
     28      1   4  0.028200    -7.873472436     3.609495163    -7.608928933   0   0   0 # cp
     29      1   5  0.110000     5.264574637     1.804750639     0.226021392   0   0   0 # c5
     30      1   7  0.100000     3.676586289     1.849863957    -1.489041857   0   0   0 # h
     31      1   4 -0.100000     4.393407195     2.194290269     2.703843575   0   0   0 # cp
     32      1   7  0.100000     2.086319608     2.517989630     2.853100562   0   0   0 # h
     33      1   4 -0.100000    -8.376459727     4.073462417    -6.227169602   0   0   0 # cp
     34      1   4 -0.100000    -8.646557731     4.017462590    -8.878907054   0   0   0 # cp
     35      1   5  0.199300     5.529712923     1.922936645     1.711900707   0   0   0 # c5
     36      1   2 -0.589300     6.562571599     1.482277875    -0.449976962   0   0   0 # n
     37      1   7  0.100000     4.597597733     2.283218043     3.821854447   0   0   0 # h
     38      1   4 -0.100000    -9.684969164     4.882096660    -6.114260695   0   0   0 # cp
     39      1   7  0.100000    -7.790460855     3.809975116    -5.286951235   0   0   0 # h
     40      1   4 -0.100000    -9.947700596     4.835057844    -8.766330505   0   0   0 # cp
     41      1   7  0.100000    -8.262097850     3.700586296    -9.904328046   0   0   0 # h
     42      1   3 -0.499300     6.999323660     1.679145362     1.993673692   0   0   0 # n=
     43      1   1  0.499300     7.622520524     1.394489744     0.630458320   0   0   0 # c=
     44      1   6  0.280000     6.713304589     1.304806895    -1.535442376   0   0   0 # hn
     45      1   4  0.000000   -10.482029227     5.245447907    -7.382346801   0   0   0 # cp
     46      1   7  0.100000   -10.067746581     5.204896026    -5.090049705   0   0   0 # h
     47      1   7  0.100000   -10.523013525     5.123388034    -9.707448356   0   0   0 # h
     48      1   4  0.000000     9.090298104     0.986274621     0.388212036   0   0   0 # cp
     49      1   1  0.499300   -11.824452959     5.996299402    -7.264886060   0   0   0 # c=
     50      1   4 -0.100000    10.075734816     0.864700971     1.569214719   0   0   0 # cp
     51      1   4 -0.100000     9.562811173     0.659661817    -1.040719055   0   0   0 # cp
     52      1   2 -0.589300   -12.704829974     6.399894315    -8.431848850   0   0   0 # n
     53      1   3 -0.499300   -12.495853504     6.384162838    -5.952441213   0   0   0 # n=
     54      1   4 -0.100000    11.507825269     0.340246969     1.329424832   0   0   0 # cp
     55      1   7  0.100000     9.740301192     1.145520753     2.622180028   0   0   0 # h
     56      1   4 -0.100000    10.990616940     0.133087457    -1.278996793   0   0   0 # cp
     57      1   7  0.100000     8.847883147     0.787180226    -1.919992735   0   0   0 # h
     58      1   5  0.110000   -13.939632419     7.031705720    -7.859663597   0   0   0 # c5
     59      1   6  0.280000   -12.487085852     6.234816876    -9.507718603   0   0   0 # hn
     60      1   5  0.199300   -13.813004376     7.016809606    -6.351426700   0   0   0 # c5
     61      1   4  0.028200    11.948393504    -0.075042102    -0.089602377   0   0   0 # cp
     62      1   7  0.100000    12.228917416     0.238100047     2.205393290   0   0   0 # h
     63      1   7  0.100000    11.330595733    -0.128512707    -2.335381200   0   0   0 # h
     64      1   4 -0.100000   -15.186124965     7.578831244    -8.568768125   0   0   0 # cp
     65      1   4 -0.100000   -14.935885092     7.541441162    -5.450850589   0   0   0 # cp
     66      1   8 -0.056400    13.294680926    -0.726718809    -0.330852061   0   0   0 # o
     67      1   4  0.000000   -16.343852208     8.100512729    -7.682127639   0   0   0 # cp
     68      1   7  0.100000   -15.264692234     7.585081863    -9.706069623   0   0   0 # h
     69      1   4 -0.100000   -16.216662845     8.080996909    -6.132072594   0   0   0 # cp
     70      1   7  0.100000   -14.835942051     7.524158506    -4.315370713   0   0   0 # h
     71      1   4  0.028200    14.438425604    -0.374880043     0.595440657   0   0   0 # cp
     72      1   4  0.000000   -17.643773631     8.626596062    -8.323481856   0   0   0 # cp
     73      1   7  0.100000   -17.076359240     8.469064599    -5.491871747   0   0   0 # h
     74      1   4 -0.100000    14.242342135    -0.399470862     2.126063501   0   0   0 # cp
     75      1   4 -0.100000    15.822026838    -0.042588342    -0.001963928   0   0   0 # cp
     76      1   4 -0.100000   -17.759448559     8.769145706    -9.861839219   0   0   0 # cp
     77      1   4 -0.100000   -18.840657779     9.009146016    -7.406529421   0   0   0 # cp
     78      1   4 -0.100000    15.429492904    -0.081135400     3.058545620   0   0   0 # cp
     79      1   7  0.100000    13.224569742    -0.661533152     2.569288501   0   0   0 # h
     80      1   4 -0.100000    17.009166374     0.267043866     0.929438729   0   0   0 # cp
     81      1   7  0.100000    15.970293607    -0.034998597    -1.132849428   0   0   0 # h
     82      1   5  0.110000   -19.085163183     9.295744462   -10.428130916   0   0   0 # c5
     83      1   7  0.100000   -16.889036076     8.499926418   -10.547157274   0   0   0 # h
     84      1   4 -0.100000   -20.172552154     9.511545089    -8.014588338   0   0   0 # cp
     85      1   7  0.100000   -18.737481298     8.911343941    -6.275354336   0   0   0 # h
     86      1   4  0.179200    16.811121300     0.258506401     2.458299694   0   0   0 # cp
     87      1   7  0.100000    15.288509649    -0.099412603     4.190667241   0   0   0 # h
     88      1   7  0.100000    18.035186759     0.500560866     0.489475610   0   0   0 # h
     89      1   5  0.199300   -20.260946060     9.637651337    -9.538600497   0   0   0 # c5
     90      1   2 -0.589300   -19.483085977     9.579304109   -11.846708004   0   0   0 # n
     91      1   7  0.100000   -21.057843275     9.782836423    -7.349546447   0   0   0 # h
     92      1   3 -0.499300   -21.420559520    10.123186482   -10.382896388   0   0   0 # n=
     93      1   1  0.499300   -20.911646910    10.087011330   -11.818947979   0   0   0 # c=
     94      1   6  0.280000   -18.849704423     9.444769449   -12.748271487   0   0   0 # hn
     95      1   4  0.000000   -21.726482301    10.522231982   -13.053729966   0   0   0 # cp
     96      1   4 -0.100000   -23.213250291    10.899045759   -12.902678281   0   0   0 # cp
     97      1   4 -0.100000   -21.056580035    10.583739096   -14.438840342   0   0   0 # cp
     98      1   4 -0.100000   -24.036191177    11.309925032   -14.139738149   0   0   0 # cp
     99      1   7  0.100000   -23.708072035    10.862210662   -11.876182348   0   0   0 # h
    100      1   4 -0.100000   -21.870607482    11.028481483   -15.669396991   0   0   0 # cp
    101      1   7  0.100000   -19.956374023    10.307136587   -14.552446354   0   0   0 # h
    102      1   4  0.028200   -23.364732054    11.379004609   -15.524756467   0   0   0 # cp
    103      1   7  0.100000   -25.143743848    11.556201759   -14.030395471   0   0   0 # h
    104      1   7  0.100000   -21.370211194    11.083612631   -16.692312506   0   0   0 # h
    105      1   8 -0.056400   -24.169190564    11.740430224   -16.755114729   0   0   0 # o
    106      1   4  0.028200   -25.136966010    12.901642533   -16.658629254   0   0   0 # cp
    107      1   4 -0.100000   -25.661058243    13.387414938   -15.292440231   0   0   0 # cp
    108      1   4 -0.100000   -25.618396353    13.591472235   -17.950245450   0   0   0 # cp
    109      1   4 -0.100000   -26.718165992    14.508059993   -15.226216787   0   0   0 # cp
    110      1   7  0.100000   -25.278519364    12.912102530   -14.331042289   0   0   0 # h
    111      1   4 -0.100000   -26.665860224    14.719120204   -17.883184311   0   0   0 # cp
    112      1   7  0.100000   -25.208779976    13.255965655   -18.959844197   0   0   0 # h
    113      1   4  0.000000   -27.238069566    15.158307123   -16.523251749   0   0   0 # cp
    114      1   7  0.100000   -27.123257308    14.849465404   -14.216745599   0   0   0 # h
    115      1   7  0.100000   -27.029887308    15.217030961   -18.841990017   0   0   0 # h
    116      1   1  0.499300   -28.347127978    16.228192762   -16.462254608   0   0   0 # c=
    117      1   2 -0.589300   -28.948053082    16.931904747   -17.663014826   0   0   0 # n
    118      1   3 -0.499300   -29.049321898    16.685515043   -15.189229809   0   0   0 # n=
    119      1   5  0.110000   -30.039629433    17.825842111   -17.153512892   0   0   0 # c5
    120      1   6  0.280000   -28.652797013    16.792021773   -18.723904679   0   0   0 # hn
    121      1   5  0.199300   -30.102624853    17.671617823   -15.649434798   0   0   0 # c5
    122      1   4 -0.100000   -31.008629764    18.733757956   -17.922275820   0   0   0 # cp
    123      1   4 -0.100000   -31.153498352    18.409767181   -14.814493612   0   0   0 # cp
    124      1   4  0.000000   -32.091667868    19.480974174   -17.104687314   0   0   0 # cp
    125      1   7  0.100000   -30.945500635    18.840582836   -19.055550222   0   0   0 # h
    126      1   4 -0.100000   -32.160920024    19.319060693   -15.559264244   0   0   0 # cp
    127      1   7  0.100000   -31.197080576    18.287316181   -13.681876416   0   0   0 # h
    128      1   4  0.000000   -33.126121190    20.378390181   -17.813562251   0   0   0 # cp
    129      1   7  0.100000   -32.963643654    19.873895535   -14.969708321   0   0   0 # h
    130      1   4 -0.100000   -33.015430490    20.656263348   -19.333456093   0   0   0 # cp
    131      1   4 -0.100000   -34.284020441    21.000916671   -16.983264029   0   0   0 # cp
    132      1   5  0.110000   -34.083135912    21.555447916   -19.970466712   0   0   0 # c5
    133      1   7  0.100000   -32.168093473    20.213350859   -19.954208182   0   0   0 # h
    134      1   4 -0.100000   -35.359661856    21.880493676   -17.664424235   0   0   0 # cp
    135      1   7  0.100000   -34.347320316    20.797228661   -15.863379129   0   0   0 # h
    136      1   5  0.199300   -35.228924551    22.134445246   -19.169193221   0   0   0 # c5
    137      1   2 -0.589300   -34.221472617    22.035191193   -21.385512563   0   0   0 # n
    138      1   7  0.100000   -36.217232810    22.331857114   -17.064139629   0   0   0 # h
    139      1   3 -0.499300   -36.114978299    22.970171801   -20.068359540   0   0   0 # n=
    140      1   1  0.499300   -35.463860553    22.902732077   -21.444842281   0   0   0 # c=
    141      1   6  0.280000   -33.540275725    21.801525278   -22.230316502   0   0   0 # hn
    142      1   4  0.000000   -35.986241325    23.626546847   -22.702354739   0   0   0 # cp
    143      1   4 -0.100000   -37.332113424    24.375687512   -22.657004402   0   0   0 # cp
    144      1   4 -0.100000   -35.163086626    23.607458403   -24.003443545   0   0   0 # cp
    145      1   4 -0.100000   -37.868781982    25.078623563   -23.919374127   0   0   0 # cp
    146      1   7  0.100000   -37.938444516    24.397807379   -21.691847811   0   0   0 # h
    147      1   4 -0.100000   -35.683268761    24.340202211   -25.255220037   0   0   0 # cp
    148      1   7  0.100000   -34.166258605    23.055245086   -24.038800002   0   0   0 # h
    149      1   4  0.028200   -37.042992487    25.065011289   -25.219673923   0   0   0 # cp
    150      1   7  0.100000   -38.880727993    25.602625084   -23.892267791   0   0   0 # h
    151      1   7  0.100000   -35.067744423    24.333246607   -26.214771026   0   0   0 # h
    152      1   8 -0.056400   -37.575706158    25.714415780   -26.478789632   0   0   0 # o
    153      1   4  0.028200   -38.215842999    27.082058777   -26.360151891   0   0   0 # cp
    154      1   4 -0.100000   -38.758229418    27.590443579   -25.009343223   0   0   0 # cp
    155      1   4 -0.100000   -38.344252109    27.966565850   -27.616148768   0   0   0 # cp
    156      1   4 -0.100000   -39.491020930    28.944934488   -24.933169624   0   0   0 # cp
    157      1   7  0.100000   -38.629578751    26.962360791   -24.068300027   0   0   0 # h
    158      1   4 -0.100000   -39.066227990    29.325296973   -27.537239149   0   0   0 # cp
    159      1   7  0.100000   -37.915560980    27.607890377   -28.609730928   0   0   0 # h
    160      1   4  0.000000   -39.666605564    29.801433195   -26.202124300   0   0   0 # cp
    161      1   7  0.100000   -39.913598509    29.308259720   -23.938627219   0   0   0 # h
    162      1   7  0.100000   -39.172354611    29.969770803   -28.471737495   0   0   0 # h
    163      1   1  0.499300   -40.462191213    31.120892206   -26.140614262   0   0   0 # c=
    164      1   2 -0.589300   -40.715399134    32.043626681   -27.316724639   0   0   0 # n
    165      1   3 -0.499300   -41.170079182    31.655051593   -24.900942571   0   0   0 # n=
    166      1   5  0.110000   -41.593494316    33.156328964   -26.826468710   0   0   0 # c5
    167      1   6  0.280000   -40.341890246    31.906899004   -28.353104345   0   0   0 # hn
    168      1   5  0.199300   -41.873137629    32.916017637   -25.358607635   0   0   0 # c5
    169      1   4 -0.100000   -42.198621669    34.341998716   -27.588859886   0   0   0 # cp
    170      1   4 -0.100000   -42.790315190    33.845473392   -24.557728156   0   0   0 # cp
    171      1   4  0.000000   -43.141965095    35.289741320   -26.807070938   0   0   0 # cp
    172      1   7  0.100000   -41.975805490    34.510376759   -28.694203626   0   0   0 # h
    173      1   4 -0.100000   -43.436070004    35.040224764   -25.300355421   0   0   0 # cp
    174      1   7  0.100000   -43.000504225    33.656356788   -23.453355083   0   0   0 # h
    175      1   4  0.000000   -43.817307232    36.478432574   -27.518639846   0   0   0 # cp
    176      1   7  0.100000   -44.131855797    35.746440077   -24.737285562   0   0   0 # h
    177      1   4 -0.100000   -43.453700910    36.823267725   -28.984359658   0   0   0 # cp
    178      1   4 -0.100000   -44.868672268    37.326992280   -26.747889729   0   0   0 # cp
    179      1   5  0.110000   -44.167851364    38.017090721   -29.630033183   0   0   0 # c5
    180      1   7  0.100000   -42.679819674    36.215280138   -29.559821952   0   0   0 # h
    181      1   4 -0.100000   -45.589980676    38.508074172   -27.441172543   0   0   0 # cp
    182      1   7  0.100000   -45.117223375    37.069996636   -25.665220449   0   0   0 # h
    183      1   5  0.199300   -45.216207573    38.822487523   -28.893092520   0   0   0 # c5
    184      1   2 -0.589300   -44.005156670    38.612510966   -30.996590078   0   0   0 # n
    185      1   7  0.100000   -46.370525535    39.127542673   -26.887568585   0   0   0 # h
    186      1   3 -0.499300   -45.743007397    39.923402855   -29.789286338   0   0   0 # n=
    187      1   1  0.499300   -44.968148579    39.779248815   -31.093808177   0   0   0 # c=
    188      1   6  0.280000   -43.309923602    38.264401767   -31.788827417   0   0   0 # hn
    189      1   4  0.000000   -45.132922394    40.695896804   -32.321412291   0   0   0 # cp
    190      1   4 -0.100000   -46.245818771    41.761139905   -32.342964000   0   0   0 # cp
    191      1   4 -0.100000   -44.184468216    40.550947674   -33.525804570   0   0   0 # cp
    192      1   4 -0.100000   -46.429611545    42.660017124   -33.580678789   0   0   0 # cp
    193      1   7  0.100000   -46.943478753    41.873757604   -31.448339558   0   0   0 # h
    194      1   4 -0.100000   -44.344257666    41.476311082   -34.747049725   0   0   0 # cp
    195      1   7  0.100000   -43.360330125    39.763225253   -33.510768251   0   0   0 # h
    196      1   4  0.028200   -45.473713723    42.524292986   -34.780954798   0   0   0 # cp
    197      1   7  0.100000   -47.274233031    43.425128319   -33.608222253   0   0   0 # h
    198      1   7  0.100000   -43.633712590    41.376724443   -35.633086656   0   0   0 # h
    199      1   8 -0.056400   -45.660628148    43.380554544   -36.013878370   0   0   0 # o
    200      1   4  0.028200   -45.945069735    44.852443843   -35.801947921   0   0   0 # cp
    201      1   4 -0.100000   -46.479299904    45.372865017   -34.452013671   0   0   0 # cp
    202      1   4 -0.100000   -45.711790036    45.838617297   -36.962376716   0   0   0 # cp
    203      1   4 -0.100000   -46.852764388    46.859897157   -34.292015286   0   0   0 # cp
    204      1   7  0.100000   -46.612200871    44.658933910   -33.575260413   0   0   0 # h
    205      1   4 -0.100000   -46.072970404    47.326279900   -36.798131725   0   0   0 # cp
    206      1   7  0.100000   -45.285434538    45.462830733   -37.950639990   0   0   0 # h
    207      1   4  0.000000   -46.671712502    47.831557798   -35.473294832   0   0   0 # cp
    208      1   7  0.100000   -47.271191682    47.239152254   -33.301700803   0   0   0 # h
    209      1   7  0.100000   -45.912293550    48.050887081   -37.663526232   0   0   0 # h
    210      1   1  0.499300   -47.110170300    49.302682888   -35.344728744   0   0   0 # c=
    211      1   2 -0.589300   -46.994747606    50.336157576   -36.444859232   0   0   0 # n
    212      1   3 -0.499300   -47.781686205    49.918360373   -34.121675928   0   0   0 # n=
    213      1   5  0.110000   -47.601764645    51.603462701   -35.927327297   0   0   0 # c5
    214      1   6  0.280000   -46.562158856    50.177172140   -37.454629587   0   0   0 # hn
    215      1   5  0.199300   -48.082556215    51.350298171   -34.515537671   0   0   0 # c5
    216      1   4 -0.100000   -47.793535042    52.952143588   -36.625555432   0   0   0 # cp
    217      1   4 -0.100000   -48.790840542    52.443020057   -33.706260305   0   0   0 # cp
    218      1   4  0.000000   -48.515534744    54.071079663   -35.837613775   0   0   0 # cp
    219      1   7  0.100000   -47.428267682    53.122731332   -37.692006178   0   0   0 # h
    220      1   4 -0.100000   -49.007538994    53.819723423   -34.383076682   0   0   0 # cp
    221      1   7  0.100000   -49.153425535    52.245847119   -32.643589862   0   0   0 # h
    222      1   4  0.000000   -48.762139189    55.435685094   -36.506570196   0   0   0 # cp
    223      1   7  0.100000   -49.535757267    54.653993359   -33.813128293   0   0   0 # h
    224      1   4 -0.100000   -48.266892300    55.685122757   -37.943753718   0   0   0 # cp
    225      1   4 -0.100000   -49.512245592    56.544457031   -35.744405655   0   0   0 # cp
    226      1   4  0.105000   -48.529313936    57.041508312   -38.623005417   0   0   0 # cp
    227      1   7  0.100000   -47.706490642    54.865598643   -38.504560172   0   0   0 # h
    228      1   4 -0.100000   -49.778558565    57.899758764   -36.427338368   0   0   0 # cp
    229      1   7  0.100000   -49.873738550    56.360763746   -34.678353515   0   0   0 # h
    230      1   4  0.105000   -49.290273159    58.145915362   -37.867858339   0   0   0 # cp
    231      1   9 -0.665000   -48.043990326    57.289016012   -40.030510424   0   0   0 # n2
    232      1   7  0.100000   -50.338123865    58.719869632   -35.866719055   0   0   0 # h
    233      1   9 -0.665000   -49.558388001    59.471189230   -38.541443854   0   0   0 # n2
    234      1   6  0.280000   -47.494742229    56.493049465   -40.576234133   0   0   0 # hn
    235      1   6  0.280000   -48.235603940    58.268204500   -40.517533962   0   0   0 # hn
    236      1   6  0.280000   -50.108215526    60.268340859   -37.998796884   0   0   0 # hn
    237      1   6  0.280000   -49.206783368    59.647361947   -39.579660258   0   0   0 # hn
    238      1  10  0.230800    17.997613419     0.588409000     3.384219082   0   0   0 # c'
    239      1  11 -0.380000    19.339737618     0.956305446     2.789515906   0   0   0 # oh
    240      1  12 -0.380000    17.811168527     0.574105870     4.884801675   0   0   0 # o'
    241      1  13  0.350000    20.000231212     1.298918533     3.606828625   0   0   0 # ho

Bonds

     1   1      1      2
     2   2      1      3
     3   3      1      4
     4   4      2      5
     5   5      2      6
     6   6      3      7
     7   7      4      8
     8   7      4      9
     9   8      5      7
    10   9     10      5
    11   9     11      7
    12   7      8     12
    13  10      8     13
    14   7      9     14
    15  10      9     15
    16   7     10     16
    17  10     10     17
    18   7     11     18
    19  10     11     19
    20   7     12     20
    21  10     12     21
    22   7     14     20
    23  10     14     22
    24   7     16     18
    25   7     16     23
    26  10     18     24
    27  11     20     25
    28   7     23     26
    29   7     23     27
    30  11     28     25
    31   9     26     29
    32  10     26     30
    33   7     27     31
    34  10     27     32
    35   7     28     33
    36   7     28     34
    37   8     29     35
    38   4     36     29
    39   9     31     35
    40  10     31     37
    41   7     33     38
    42  10     33     39
    43   7     34     40
    44  10     34     41
    45   6     42     35
    46   1     43     36
    47   5     36     44
    48   7     38     45
    49  10     38     46
    50   7     40     45
    51  10     40     47
    52   2     43     42
    53   3     43     48
    54   3     49     45
    55   7     48     50
    56   7     48     51
    57   1     49     52
    58   2     49     53
    59   7     50     54
    60  10     50     55
    61   7     51     56
    62  10     51     57
    63   4     52     58
    64   5     52     59
    65   6     53     60
    66   7     54     61
    67  10     54     62
    68   7     56     61
    69  10     56     63
    70   8     58     60
    71   9     64     58
    72   9     65     60
    73  11     61     66
    74   7     64     67
    75  10     64     68
    76   7     65     69
    77  10     65     70
    78  11     71     66
    79   7     67     69
    80   7     67     72
    81  10     69     73
    82   7     71     74
    83   7     71     75
    84   7     72     76
    85   7     72     77
    86   7     74     78
    87  10     74     79
    88   7     75     80
    89  10     75     81
    90   9     76     82
    91  10     76     83
    92   7     77     84
    93  10     77     85
    94   7     78     86
    95  10     78     87
    96   7     80     86